# This file is exported from "ReciPro"
# http://pmsl.planet.sci.kobe-u.ac.jp/~seto
data_global
_chemical_name 'Turquoise'
loop_
_publ_author_name
'Cid-Dresdner H'
_journal_name 'Zeitschrift fur Kristallographie 121 (1965) 87-113'
_publ_section_title
;
 Determination and refinement of the crystal structure of turquois.
 CuAl6(PO4)4(OH)8*4H2O
Locality: Virginia. USA

_database_code_amcsd 0010612
;
_chemical_formula_sum 'Cu P4 Al6 O28 H16'
_cell_length_a 7.424000
_cell_length_b 7.629000
_cell_length_c 9.910000
_cell_angle_alpha 68.610000
_cell_angle_beta 69.710000
_cell_angle_gamma 65.080000
_cell_volume 461.402529
_exptl_crystal_density_diffrn 2.927493
_space_group_IT_number 2
_symmetry_space_group_name_H-M 'P-1'
_symmetry_space_group_name_Hall '-P1'
loop_
_symmetry_equiv_pos_as_xyz
  'x,y,z'
  '-x,-y,-z'
loop_
_atom_site_label
_atom_site_type_symbol
_atom_site_fract_x
_atom_site_fract_y
_atom_site_fract_z
_atom_site_occupancy
_atom_site_U_iso_or_equiv
Cu Cu 0.00000 0.00000 0.00000 1.00000 0.00000
P1 P 0.35040 0.38670 0.94290 1.00000 0.00000
P2 P 0.84230 0.38660 0.45700 1.00000 0.00000
Al1 Al 0.28430 0.17660 0.75210 1.00000 0.00000
Al2 Al 0.75200 0.18620 0.27360 1.00000 0.00000
Al3 Al 0.24480 0.50230 0.24380 1.00000 0.00000
O1 O 0.06750 0.36330 0.38410 1.00000 0.00000
O2 O 0.80580 0.34350 0.62620 1.00000 0.00000
O3 O 0.27520 0.35540 0.11290 1.00000 0.00000
O4 O 0.06630 0.06390 0.19730 1.00000 0.00000
O5 O 0.23750 0.07390 0.62870 1.00000 0.00000
O6 O 0.73340 0.08570 0.12430 1.00000 0.00000
O7 O 0.29780 0.40160 0.60600 1.00000 0.00000
O8 O 0.32490 0.22270 0.90490 1.00000 0.00000
O9 O 0.98570 0.28070 0.84710 1.00000 0.00000
O10 O 0.57560 0.04670 0.68550 1.00000 0.00000
O11 O 0.78660 0.40670 0.13190 1.00000 0.00000
O12 O 0.46300 0.29500 0.32770 1.00000 0.00000
O13 O 0.78640 0.22810 0.43230 1.00000 0.00000
O14 O 0.57790 0.36600 0.89870 1.00000 0.00000
H1 H 0.86670 0.03330 0.75330 1.00000 0.00010
H2 H 0.15000 0.15670 0.15000 1.00000 0.00010
H3 H 0.63330 0.14330 0.59000 1.00000 0.00012
H4 H 0.39330 0.08330 0.29000 1.00000 0.00012
H5 H 0.14330 0.16670 0.59330 1.00000 0.00009
H6 H 0.65000 0.14330 0.10000 1.00000 0.00008
H7 H 0.98000 0.35000 0.90000 1.00000 0.00008
H8 H 0.45000 0.26760 0.42330 1.00000 0.00008
loop_
_atom_site_aniso_label
_atom_site_aniso_U_11
_atom_site_aniso_U_22
_atom_site_aniso_U_33
_atom_site_aniso_U_23
_atom_site_aniso_U_13
_atom_site_aniso_U_12
Cu 0.00017 0.00018 0.00019 -0.00014 0.00016 0.00018
P1 0.00003 0.00003 0.00003 0.00004 0.00004 0.00003
P2 0.00003 0.00003 0.00002 0.00002 0.00003 0.00003
Al1 0.00006 0.00002 0.00005 -0.00012 0.00003 0.00008
Al2 0.00003 0.00001 0.00007 -0.00014 0.00004 0.00004
Al3 0.00003 0.00003 0.00003 0.00002 0.00003 0.00003
O1 0.00002 0.00010 0.00006 -0.00030 -0.00001 0.00008
O2 0.00008 0.00008 0.00003 -0.00019 -0.00001 0.00021
O3 0.00007 0.00009 0.00004 -0.00022 0.00004 0.00018
O4 0.00013 0.00007 0.00010 0.00009 -0.00003 0.00011
O5 0.00010 0.00002 0.00011 0.00004 0.00003 0.00008
O6 0.00007 0.00005 0.00011 -0.00002 0.00001 0.00007
O7 0.00008 0.00003 0.00017 -0.00017 0.00007 0.00011
O8 0.00016 0.00008 0.00005 0.00004 -0.00001 0.00026
O9 0.00010 0.00007 0.00004 -0.00007 -0.00001 0.00016
O10 0.00009 0.00004 0.00018 -0.00002 -0.00001 0.00007
O11 0.00012 0.00004 0.00009 -0.00009 0.00001 0.00011
O12 0.00003 0.00006 0.00010 -0.00014 0.00013 0.00002
O13 0.00005 0.00009 0.00006 -0.00011 -0.00004 0.00017
O14 0.00002 0.00010 0.00001 -0.00028 0.00010 0.00010
